Co Ni Cr
           1
    14.112000    0.000000    0.000000
     0.000000   14.112000    0.000000
     0.000000    0.000000   14.112000
 Co               Ni               Cr              
               85               85               85
Direct configuration=     1
  0.00000000  0.00000000  0.00000000
  0.00000000  0.00000000  0.75000000
  0.25000000  0.00000000  0.00000000
  0.25000000  0.00000000  0.25000000
  0.25000000  0.00000000  0.75000000
  0.25000000  0.25000000  0.25000000
  0.25000000  0.25000000  0.75000000
  0.25000000  0.50000000  0.50000000
  0.25000000  0.75000000  0.75000000
  0.50000000  0.00000000  0.00000000
  0.50000000  0.00000000  0.50000000
  0.50000000  0.00000000  0.75000000
  0.50000000  0.25000000  0.00000000
  0.50000000  0.25000000  0.25000000
  0.50000000  0.25000000  0.50000000
  0.50000000  0.25000000  0.75000000
  0.50000000  0.50000000  0.75000000
  0.75000000  0.00000000  0.00000000
  0.75000000  0.00000000  0.50000000
  0.75000000  0.25000000  0.25000000
  0.75000000  0.50000000  0.50000000
  0.75000000  0.50000000  0.75000000
  0.00000000  0.12500000  0.87500000
  0.00000000  0.87500000  0.87500000
  0.25000000  0.12500000  0.62500000
  0.25000000  0.37500000  0.12500000
  0.25000000  0.37500000  0.37500000
  0.25000000  0.37500000  0.62500000
  0.25000000  0.62500000  0.12500000
  0.25000000  0.62500000  0.62500000
  0.25000000  0.62500000  0.87500000
  0.25000000  0.87500000  0.37500000
  0.50000000  0.12500000  0.37500000
  0.50000000  0.37500000  0.12500000
  0.50000000  0.62500000  0.62500000
  0.50000000  0.87500000  0.62500000
  0.75000000  0.12500000  0.12500000
  0.75000000  0.12500000  0.37500000
  0.75000000  0.12500000  0.87500000
  0.75000000  0.37500000  0.87500000
  0.75000000  0.62500000  0.37500000
  0.75000000  0.62500000  0.87500000
  0.75000000  0.87500000  0.37500000
  0.12500000  0.25000000  0.12500000
  0.12500000  0.50000000  0.12500000
  0.37500000  0.00000000  0.62500000
  0.37500000  0.00000000  0.87500000
  0.37500000  0.25000000  0.62500000
  0.37500000  0.50000000  0.37500000
  0.37500000  0.75000000  0.62500000
  0.62500000  0.00000000  0.37500000
  0.62500000  0.00000000  0.62500000
  0.62500000  0.25000000  0.87500000
  0.62500000  0.50000000  0.62500000
  0.62500000  0.75000000  0.62500000
  0.87500000  0.00000000  0.12500000
  0.87500000  0.00000000  0.62500000
  0.87500000  0.00000000  0.87500000
  0.87500000  0.25000000  0.12500000
  0.87500000  0.50000000  0.12500000
  0.87500000  0.50000000  0.62500000
  0.87500000  0.75000000  0.37500000
  0.12500000  0.37500000  0.00000000
  0.12500000  0.37500000  0.50000000
  0.12500000  0.37500000  0.75000000
  0.12500000  0.62500000  0.75000000
  0.12500000  0.87500000  0.00000000
  0.12500000  0.87500000  0.50000000
  0.37500000  0.12500000  0.00000000
  0.37500000  0.37500000  0.50000000
  0.37500000  0.62500000  0.00000000
  0.37500000  0.62500000  0.25000000
  0.37500000  0.87500000  0.50000000
  0.62500000  0.12500000  0.75000000
  0.62500000  0.37500000  0.00000000
  0.62500000  0.37500000  0.25000000
  0.62500000  0.62500000  0.75000000
  0.62500000  0.87500000  0.00000000
  0.62500000  0.87500000  0.50000000
  0.87500000  0.12500000  0.00000000
  0.87500000  0.12500000  0.50000000
  0.87500000  0.37500000  0.50000000
  0.87500000  0.62500000  0.00000000
  0.87500000  0.62500000  0.50000000
  0.87500000  0.87500000  0.00000000
  0.00000000  0.00000000  0.25000000
  0.00000000  0.00000000  0.50000000
  0.00000000  0.50000000  0.00000000
  0.00000000  0.50000000  0.75000000
  0.00000000  0.75000000  0.25000000
  0.00000000  0.75000000  0.50000000
  0.25000000  0.50000000  0.00000000
  0.50000000  0.00000000  0.25000000
  0.50000000  0.50000000  0.50000000
  0.75000000  0.00000000  0.25000000
  0.75000000  0.00000000  0.75000000
  0.75000000  0.25000000  0.75000000
  0.75000000  0.50000000  0.00000000
  0.75000000  0.50000000  0.25000000
  0.75000000  0.75000000  0.25000000
  0.00000000  0.12500000  0.12500000
  0.00000000  0.12500000  0.37500000
  0.00000000  0.62500000  0.37500000
  0.00000000  0.62500000  0.62500000
  0.00000000  0.87500000  0.37500000
  0.00000000  0.87500000  0.62500000
  0.25000000  0.12500000  0.12500000
  0.25000000  0.12500000  0.37500000
  0.25000000  0.62500000  0.37500000
  0.25000000  0.87500000  0.12500000
  0.25000000  0.87500000  0.62500000
  0.25000000  0.87500000  0.87500000
  0.50000000  0.12500000  0.12500000
  0.50000000  0.37500000  0.87500000
  0.50000000  0.62500000  0.12500000
  0.50000000  0.62500000  0.37500000
  0.50000000  0.87500000  0.37500000
  0.75000000  0.12500000  0.62500000
  0.75000000  0.37500000  0.12500000
  0.75000000  0.37500000  0.37500000
  0.75000000  0.87500000  0.12500000
  0.75000000  0.87500000  0.62500000
  0.75000000  0.87500000  0.87500000
  0.12500000  0.00000000  0.12500000
  0.12500000  0.00000000  0.87500000
  0.12500000  0.25000000  0.37500000
  0.12500000  0.25000000  0.62500000
  0.12500000  0.50000000  0.62500000
  0.12500000  0.75000000  0.12500000
  0.12500000  0.75000000  0.87500000
  0.37500000  0.00000000  0.37500000
  0.37500000  0.50000000  0.12500000
  0.37500000  0.75000000  0.12500000
  0.37500000  0.75000000  0.87500000
  0.62500000  0.00000000  0.12500000
  0.62500000  0.25000000  0.12500000
  0.62500000  0.25000000  0.62500000
  0.62500000  0.50000000  0.12500000
  0.62500000  0.50000000  0.37500000
  0.62500000  0.50000000  0.87500000
  0.87500000  0.25000000  0.87500000
  0.87500000  0.50000000  0.87500000
  0.87500000  0.75000000  0.87500000
  0.12500000  0.12500000  0.00000000
  0.12500000  0.12500000  0.25000000
  0.12500000  0.12500000  0.75000000
  0.12500000  0.37500000  0.25000000
  0.12500000  0.62500000  0.00000000
  0.12500000  0.62500000  0.50000000
  0.12500000  0.87500000  0.25000000
  0.12500000  0.87500000  0.75000000
  0.37500000  0.12500000  0.25000000
  0.37500000  0.12500000  0.75000000
  0.37500000  0.37500000  0.25000000
  0.37500000  0.37500000  0.75000000
  0.37500000  0.62500000  0.75000000
  0.37500000  0.87500000  0.00000000
  0.37500000  0.87500000  0.25000000
  0.37500000  0.87500000  0.75000000
  0.62500000  0.12500000  0.00000000
  0.62500000  0.12500000  0.25000000
  0.62500000  0.12500000  0.50000000
  0.62500000  0.37500000  0.50000000
  0.62500000  0.62500000  0.50000000
  0.87500000  0.12500000  0.25000000
  0.87500000  0.12500000  0.75000000
  0.87500000  0.37500000  0.00000000
  0.87500000  0.37500000  0.75000000
  0.87500000  0.62500000  0.25000000
  0.87500000  0.87500000  0.75000000
  0.00000000  0.25000000  0.00000000
  0.00000000  0.25000000  0.25000000
  0.00000000  0.25000000  0.50000000
  0.00000000  0.25000000  0.75000000
  0.00000000  0.50000000  0.25000000
  0.00000000  0.50000000  0.50000000
  0.00000000  0.75000000  0.00000000
  0.00000000  0.75000000  0.75000000
  0.25000000  0.00000000  0.50000000
  0.25000000  0.25000000  0.00000000
  0.25000000  0.25000000  0.50000000
  0.25000000  0.50000000  0.25000000
  0.25000000  0.50000000  0.75000000
  0.25000000  0.75000000  0.00000000
  0.25000000  0.75000000  0.25000000
  0.25000000  0.75000000  0.50000000
  0.50000000  0.50000000  0.00000000
  0.50000000  0.50000000  0.25000000
  0.50000000  0.75000000  0.00000000
  0.50000000  0.75000000  0.25000000
  0.50000000  0.75000000  0.50000000
  0.50000000  0.75000000  0.75000000
  0.75000000  0.25000000  0.00000000
  0.75000000  0.25000000  0.50000000
  0.75000000  0.75000000  0.00000000
  0.75000000  0.75000000  0.50000000
  0.75000000  0.75000000  0.75000000
  0.00000000  0.12500000  0.62500000
  0.00000000  0.37500000  0.12500000
  0.00000000  0.37500000  0.37500000
  0.00000000  0.37500000  0.62500000
  0.00000000  0.37500000  0.87500000
  0.00000000  0.62500000  0.12500000
  0.00000000  0.62500000  0.87500000
  0.00000000  0.87500000  0.12500000
  0.25000000  0.12500000  0.87500000
  0.25000000  0.37500000  0.87500000
  0.50000000  0.12500000  0.62500000
  0.50000000  0.12500000  0.87500000
  0.50000000  0.37500000  0.37500000
  0.50000000  0.37500000  0.62500000
  0.50000000  0.62500000  0.87500000
  0.50000000  0.87500000  0.12500000
  0.50000000  0.87500000  0.87500000
  0.75000000  0.37500000  0.62500000
  0.75000000  0.62500000  0.12500000
  0.75000000  0.62500000  0.62500000
  0.12500000  0.00000000  0.37500000
  0.12500000  0.00000000  0.62500000
  0.12500000  0.25000000  0.87500000
  0.12500000  0.50000000  0.37500000
  0.12500000  0.50000000  0.87500000
  0.12500000  0.75000000  0.37500000
  0.12500000  0.75000000  0.62500000
  0.37500000  0.00000000  0.12500000
  0.37500000  0.25000000  0.12500000
  0.37500000  0.25000000  0.37500000
  0.37500000  0.25000000  0.87500000
  0.37500000  0.50000000  0.62500000
  0.37500000  0.50000000  0.87500000
  0.37500000  0.75000000  0.37500000
  0.62500000  0.00000000  0.87500000
  0.62500000  0.25000000  0.37500000
  0.62500000  0.75000000  0.12500000
  0.62500000  0.75000000  0.37500000
  0.62500000  0.75000000  0.87500000
  0.87500000  0.00000000  0.37500000
  0.87500000  0.25000000  0.37500000
  0.87500000  0.25000000  0.62500000
  0.87500000  0.50000000  0.37500000
  0.87500000  0.75000000  0.12500000
  0.87500000  0.75000000  0.62500000
  0.12500000  0.62500000  0.25000000
  0.37500000  0.12500000  0.50000000
  0.37500000  0.37500000  0.00000000
  0.37500000  0.62500000  0.50000000
  0.62500000  0.37500000  0.75000000
  0.62500000  0.62500000  0.00000000
  0.62500000  0.62500000  0.25000000
  0.62500000  0.87500000  0.25000000
  0.62500000  0.87500000  0.75000000
  0.87500000  0.37500000  0.25000000
  0.87500000  0.62500000  0.75000000
  0.87500000  0.87500000  0.25000000
  0.87500000  0.87500000  0.50000000
Co Ni Cr
           1
    14.112000    0.000000    0.000000
     0.000000   14.112000    0.000000
     0.000000    0.000000   14.112000
 Co               Ni               Cr              
               85               85               85
Direct configuration=     1
  0.00000000  0.00000000  0.00000000
  0.00000000  0.00000000  0.75000000
  0.25000000  0.00000000  0.00000000
  0.25000000  0.00000000  0.25000000
  0.25000000  0.00000000  0.75000000
  0.25000000  0.25000000  0.25000000
  0.25000000  0.25000000  0.75000000
  0.25000000  0.50000000  0.50000000
  0.25000000  0.75000000  0.75000000
  0.50000000  0.00000000  0.00000000
  0.50000000  0.00000000  0.50000000
  0.50000000  0.00000000  0.75000000
  0.50000000  0.25000000  0.00000000
  0.50000000  0.25000000  0.25000000
  0.50000000  0.25000000  0.50000000
  0.50000000  0.25000000  0.75000000
  0.50000000  0.50000000  0.75000000
  0.75000000  0.00000000  0.00000000
  0.75000000  0.00000000  0.50000000
  0.75000000  0.25000000  0.25000000
  0.75000000  0.50000000  0.50000000
  0.75000000  0.50000000  0.75000000
  0.00000000  0.12500000  0.87500000
  0.00000000  0.87500000  0.87500000
  0.25000000  0.12500000  0.62500000
  0.25000000  0.37500000  0.12500000
  0.25000000  0.37500000  0.37500000
  0.25000000  0.37500000  0.62500000
  0.25000000  0.62500000  0.12500000
  0.25000000  0.62500000  0.62500000
  0.25000000  0.62500000  0.87500000
  0.25000000  0.87500000  0.37500000
  0.50000000  0.12500000  0.37500000
  0.50000000  0.37500000  0.12500000
  0.50000000  0.62500000  0.62500000
  0.50000000  0.87500000  0.62500000
  0.75000000  0.12500000  0.12500000
  0.75000000  0.12500000  0.37500000
  0.75000000  0.12500000  0.87500000
  0.75000000  0.37500000  0.87500000
  0.75000000  0.62500000  0.37500000
  0.75000000  0.62500000  0.87500000
  0.75000000  0.87500000  0.37500000
  0.12500000  0.25000000  0.12500000
  0.12500000  0.50000000  0.12500000
  0.37500000  0.00000000  0.62500000
  0.37500000  0.00000000  0.87500000
  0.37500000  0.25000000  0.62500000
  0.37500000  0.50000000  0.37500000
  0.37500000  0.75000000  0.62500000
  0.62500000  0.00000000  0.37500000
  0.62500000  0.00000000  0.62500000
  0.62500000  0.25000000  0.87500000
  0.62500000  0.50000000  0.62500000
  0.62500000  0.75000000  0.62500000
  0.87500000  0.00000000  0.12500000
  0.87500000  0.00000000  0.62500000
  0.87500000  0.00000000  0.87500000
  0.87500000  0.25000000  0.12500000
  0.87500000  0.50000000  0.12500000
  0.87500000  0.50000000  0.62500000
  0.87500000  0.75000000  0.37500000
  0.12500000  0.37500000  0.00000000
  0.12500000  0.37500000  0.50000000
  0.12500000  0.37500000  0.75000000
  0.12500000  0.62500000  0.75000000
  0.12500000  0.87500000  0.00000000
  0.12500000  0.87500000  0.50000000
  0.37500000  0.12500000  0.00000000
  0.37500000  0.37500000  0.50000000
  0.37500000  0.62500000  0.00000000
  0.37500000  0.62500000  0.25000000
  0.37500000  0.87500000  0.50000000
  0.62500000  0.12500000  0.75000000
  0.62500000  0.37500000  0.00000000
  0.62500000  0.37500000  0.25000000
  0.62500000  0.62500000  0.75000000
  0.62500000  0.87500000  0.00000000
  0.62500000  0.87500000  0.50000000
  0.87500000  0.12500000  0.00000000
  0.87500000  0.12500000  0.50000000
  0.87500000  0.37500000  0.50000000
  0.87500000  0.62500000  0.00000000
  0.87500000  0.62500000  0.50000000
  0.87500000  0.87500000  0.00000000
  0.00000000  0.00000000  0.25000000
  0.00000000  0.00000000  0.50000000
  0.00000000  0.50000000  0.00000000
  0.00000000  0.50000000  0.75000000
  0.00000000  0.75000000  0.25000000
  0.00000000  0.75000000  0.50000000
  0.25000000  0.50000000  0.00000000
  0.50000000  0.00000000  0.25000000
  0.50000000  0.50000000  0.50000000
  0.75000000  0.00000000  0.25000000
  0.75000000  0.00000000  0.75000000
  0.75000000  0.25000000  0.75000000
  0.75000000  0.50000000  0.00000000
  0.75000000  0.50000000  0.25000000
  0.75000000  0.75000000  0.25000000
  0.00000000  0.12500000  0.12500000
  0.00000000  0.12500000  0.37500000
  0.00000000  0.62500000  0.37500000
  0.00000000  0.62500000  0.62500000
  0.00000000  0.87500000  0.37500000
  0.00000000  0.87500000  0.62500000
  0.25000000  0.12500000  0.12500000
  0.25000000  0.12500000  0.37500000
  0.25000000  0.62500000  0.37500000
  0.25000000  0.87500000  0.12500000
  0.25000000  0.87500000  0.62500000
  0.25000000  0.87500000  0.87500000
  0.50000000  0.12500000  0.12500000
  0.50000000  0.37500000  0.87500000
  0.50000000  0.62500000  0.12500000
  0.50000000  0.62500000  0.37500000
  0.50000000  0.87500000  0.37500000
  0.75000000  0.12500000  0.62500000
  0.75000000  0.37500000  0.12500000
  0.75000000  0.37500000  0.37500000
  0.75000000  0.87500000  0.12500000
  0.75000000  0.87500000  0.62500000
  0.75000000  0.87500000  0.87500000
  0.12500000  0.00000000  0.12500000
  0.12500000  0.00000000  0.87500000
  0.12500000  0.25000000  0.37500000
  0.12500000  0.25000000  0.62500000
  0.12500000  0.50000000  0.62500000
  0.12500000  0.75000000  0.12500000
  0.12500000  0.75000000  0.87500000
  0.37500000  0.00000000  0.37500000
  0.37500000  0.50000000  0.12500000
  0.37500000  0.75000000  0.12500000
  0.37500000  0.75000000  0.87500000
  0.62500000  0.00000000  0.12500000
  0.62500000  0.25000000  0.12500000
  0.62500000  0.25000000  0.62500000
  0.62500000  0.50000000  0.12500000
  0.62500000  0.50000000  0.37500000
  0.62500000  0.50000000  0.87500000
  0.87500000  0.25000000  0.87500000
  0.87500000  0.50000000  0.87500000
  0.87500000  0.75000000  0.87500000
  0.12500000  0.12500000  0.00000000
  0.12500000  0.12500000  0.25000000
  0.12500000  0.12500000  0.75000000
  0.12500000  0.37500000  0.25000000
  0.12500000  0.62500000  0.00000000
  0.12500000  0.62500000  0.50000000
  0.12500000  0.87500000  0.25000000
  0.12500000  0.87500000  0.75000000
  0.37500000  0.12500000  0.25000000
  0.37500000  0.12500000  0.75000000
  0.37500000  0.37500000  0.25000000
  0.37500000  0.37500000  0.75000000
  0.37500000  0.62500000  0.75000000
  0.37500000  0.87500000  0.00000000
  0.37500000  0.87500000  0.25000000
  0.37500000  0.87500000  0.75000000
  0.62500000  0.12500000  0.00000000
  0.62500000  0.12500000  0.25000000
  0.62500000  0.12500000  0.50000000
  0.62500000  0.37500000  0.50000000
  0.62500000  0.62500000  0.50000000
  0.87500000  0.12500000  0.25000000
  0.87500000  0.12500000  0.75000000
  0.87500000  0.37500000  0.00000000
  0.87500000  0.37500000  0.75000000
  0.87500000  0.62500000  0.25000000
  0.87500000  0.87500000  0.75000000
  0.00000000  0.25000000  0.00000000
  0.00000000  0.25000000  0.25000000
  0.00000000  0.25000000  0.50000000
  0.00000000  0.25000000  0.75000000
  0.00000000  0.50000000  0.25000000
  0.00000000  0.50000000  0.50000000
  0.00000000  0.75000000  0.00000000
  0.00000000  0.75000000  0.75000000
  0.25000000  0.00000000  0.50000000
  0.25000000  0.25000000  0.00000000
  0.25000000  0.25000000  0.50000000
  0.25000000  0.50000000  0.25000000
  0.25000000  0.50000000  0.75000000
  0.25000000  0.75000000  0.00000000
  0.25000000  0.75000000  0.25000000
  0.25000000  0.75000000  0.50000000
  0.50000000  0.50000000  0.00000000
  0.50000000  0.50000000  0.25000000
  0.50000000  0.75000000  0.00000000
  0.50000000  0.75000000  0.25000000
  0.50000000  0.75000000  0.50000000
  0.50000000  0.75000000  0.75000000
  0.75000000  0.25000000  0.00000000
  0.75000000  0.25000000  0.50000000
  0.75000000  0.75000000  0.00000000
  0.75000000  0.75000000  0.50000000
  0.75000000  0.75000000  0.75000000
  0.00000000  0.12500000  0.62500000
  0.00000000  0.37500000  0.12500000
  0.00000000  0.37500000  0.37500000
  0.00000000  0.37500000  0.62500000
  0.00000000  0.37500000  0.87500000
  0.00000000  0.62500000  0.12500000
  0.00000000  0.62500000  0.87500000
  0.00000000  0.87500000  0.12500000
  0.25000000  0.12500000  0.87500000
  0.25000000  0.37500000  0.87500000
  0.50000000  0.12500000  0.62500000
  0.50000000  0.12500000  0.87500000
  0.50000000  0.37500000  0.37500000
  0.50000000  0.37500000  0.62500000
  0.50000000  0.62500000  0.87500000
  0.50000000  0.87500000  0.12500000
  0.50000000  0.87500000  0.87500000
  0.75000000  0.37500000  0.62500000
  0.75000000  0.62500000  0.12500000
  0.75000000  0.62500000  0.62500000
  0.12808248  0.12808248  0.51232993
  0.12500000  0.00000000  0.62500000
  0.12500000  0.25000000  0.87500000
  0.12500000  0.50000000  0.37500000
  0.12500000  0.50000000  0.87500000
  0.12500000  0.75000000  0.37500000
  0.12500000  0.75000000  0.62500000
  0.37500000  0.00000000  0.12500000
  0.37500000  0.25000000  0.12500000
  0.37500000  0.25000000  0.37500000
  0.37500000  0.25000000  0.87500000
  0.37500000  0.50000000  0.62500000
  0.37500000  0.50000000  0.87500000
  0.37500000  0.75000000  0.37500000
  0.62500000  0.00000000  0.87500000
  0.62500000  0.25000000  0.37500000
  0.62500000  0.75000000  0.12500000
  0.62500000  0.75000000  0.37500000
  0.62500000  0.75000000  0.87500000
  0.87500000  0.00000000  0.37500000
  0.87500000  0.25000000  0.37500000
  0.87500000  0.25000000  0.62500000
  0.87500000  0.50000000  0.37500000
  0.87500000  0.75000000  0.12500000
  0.87500000  0.75000000  0.62500000
  0.12500000  0.62500000  0.25000000
  0.37500000  0.12500000  0.50000000
  0.37500000  0.37500000  0.00000000
  0.37500000  0.62500000  0.50000000
  0.62500000  0.37500000  0.75000000
  0.62500000  0.62500000  0.00000000
  0.62500000  0.62500000  0.25000000
  0.62500000  0.87500000  0.25000000
  0.62500000  0.87500000  0.75000000
  0.87500000  0.37500000  0.25000000
  0.87500000  0.62500000  0.75000000
  0.87500000  0.87500000  0.25000000
  0.87500000  0.87500000  0.50000000
Co Ni Cr
           1
    14.112000    0.000000    0.000000
     0.000000   14.112000    0.000000
     0.000000    0.000000   14.112000
 Co               Ni               Cr              
               85               85               85
Direct configuration=     1
  0.00000000  0.00000000  0.00000000
  0.00000000  0.00000000  0.75000000
  0.25000000  0.00000000  0.00000000
  0.25000000  0.00000000  0.25000000
  0.25000000  0.00000000  0.75000000
  0.25000000  0.25000000  0.25000000
  0.25000000  0.25000000  0.75000000
  0.25000000  0.50000000  0.50000000
  0.25000000  0.75000000  0.75000000
  0.50000000  0.00000000  0.00000000
  0.50000000  0.00000000  0.50000000
  0.50000000  0.00000000  0.75000000
  0.50000000  0.25000000  0.00000000
  0.50000000  0.25000000  0.25000000
  0.50000000  0.25000000  0.50000000
  0.50000000  0.25000000  0.75000000
  0.50000000  0.50000000  0.75000000
  0.75000000  0.00000000  0.00000000
  0.75000000  0.00000000  0.50000000
  0.75000000  0.25000000  0.25000000
  0.75000000  0.50000000  0.50000000
  0.75000000  0.50000000  0.75000000
  0.00000000  0.12500000  0.87500000
  0.00000000  0.87500000  0.87500000
  0.25000000  0.12500000  0.62500000
  0.25000000  0.37500000  0.12500000
  0.25000000  0.37500000  0.37500000
  0.25000000  0.37500000  0.62500000
  0.25000000  0.62500000  0.12500000
  0.25000000  0.62500000  0.62500000
  0.25000000  0.62500000  0.87500000
  0.25000000  0.87500000  0.37500000
  0.50000000  0.12500000  0.37500000
  0.50000000  0.37500000  0.12500000
  0.50000000  0.62500000  0.62500000
  0.50000000  0.87500000  0.62500000
  0.75000000  0.12500000  0.12500000
  0.75000000  0.12500000  0.37500000
  0.75000000  0.12500000  0.87500000
  0.75000000  0.37500000  0.87500000
  0.75000000  0.62500000  0.37500000
  0.75000000  0.62500000  0.87500000
  0.75000000  0.87500000  0.37500000
  0.12500000  0.25000000  0.12500000
  0.12500000  0.50000000  0.12500000
  0.37500000  0.00000000  0.62500000
  0.37500000  0.00000000  0.87500000
  0.37500000  0.25000000  0.62500000
  0.37500000  0.50000000  0.37500000
  0.37500000  0.75000000  0.62500000
  0.62500000  0.00000000  0.37500000
  0.62500000  0.00000000  0.62500000
  0.62500000  0.25000000  0.87500000
  0.62500000  0.50000000  0.62500000
  0.62500000  0.75000000  0.62500000
  0.87500000  0.00000000  0.12500000
  0.87500000  0.00000000  0.62500000
  0.87500000  0.00000000  0.87500000
  0.87500000  0.25000000  0.12500000
  0.87500000  0.50000000  0.12500000
  0.87500000  0.50000000  0.62500000
  0.87500000  0.75000000  0.37500000
  0.12500000  0.37500000  0.00000000
  0.12500000  0.37500000  0.50000000
  0.12500000  0.37500000  0.75000000
  0.12500000  0.62500000  0.75000000
  0.12500000  0.87500000  0.00000000
  0.12808248  0.00000000  0.38424745
  0.37500000  0.12500000  0.00000000
  0.37500000  0.37500000  0.50000000
  0.37500000  0.62500000  0.00000000
  0.37500000  0.62500000  0.25000000
  0.37500000  0.87500000  0.50000000
  0.62500000  0.12500000  0.75000000
  0.62500000  0.37500000  0.00000000
  0.62500000  0.37500000  0.25000000
  0.62500000  0.62500000  0.75000000
  0.62500000  0.87500000  0.00000000
  0.62500000  0.87500000  0.50000000
  0.87500000  0.12500000  0.00000000
  0.87500000  0.12500000  0.50000000
  0.87500000  0.37500000  0.50000000
  0.87500000  0.62500000  0.00000000
  0.87500000  0.62500000  0.50000000
  0.87500000  0.87500000  0.00000000
  0.00000000  0.00000000  0.25000000
  0.00000000  0.00000000  0.50000000
  0.00000000  0.50000000  0.00000000
  0.00000000  0.50000000  0.75000000
  0.00000000  0.75000000  0.25000000
  0.00000000  0.75000000  0.50000000
  0.25000000  0.50000000  0.00000000
  0.50000000  0.00000000  0.25000000
  0.50000000  0.50000000  0.50000000
  0.75000000  0.00000000  0.25000000
  0.75000000  0.00000000  0.75000000
  0.75000000  0.25000000  0.75000000
  0.75000000  0.50000000  0.00000000
  0.75000000  0.50000000  0.25000000
  0.75000000  0.75000000  0.25000000
  0.00000000  0.12500000  0.12500000
  0.00000000  0.12500000  0.37500000
  0.00000000  0.62500000  0.37500000
  0.00000000  0.62500000  0.62500000
  0.00000000  0.87500000  0.37500000
  0.00000000  0.87500000  0.62500000
  0.25000000  0.12500000  0.12500000
  0.25000000  0.12500000  0.37500000
  0.25000000  0.62500000  0.37500000
  0.25000000  0.87500000  0.12500000
  0.25000000  0.87500000  0.62500000
  0.25000000  0.87500000  0.87500000
  0.50000000  0.12500000  0.12500000
  0.50000000  0.37500000  0.87500000
  0.50000000  0.62500000  0.12500000
  0.50000000  0.62500000  0.37500000
  0.50000000  0.87500000  0.37500000
  0.75000000  0.12500000  0.62500000
  0.75000000  0.37500000  0.12500000
  0.75000000  0.37500000  0.37500000
  0.75000000  0.87500000  0.12500000
  0.75000000  0.87500000  0.62500000
  0.75000000  0.87500000  0.87500000
  0.12500000  0.00000000  0.12500000
  0.12500000  0.00000000  0.87500000
  0.12500000  0.25000000  0.37500000
  0.12500000  0.25000000  0.62500000
  0.12500000  0.50000000  0.62500000
  0.12500000  0.75000000  0.12500000
  0.12500000  0.75000000  0.87500000
  0.37500000  0.00000000  0.37500000
  0.37500000  0.50000000  0.12500000
  0.37500000  0.75000000  0.12500000
  0.37500000  0.75000000  0.87500000
  0.62500000  0.00000000  0.12500000
  0.62500000  0.25000000  0.12500000
  0.62500000  0.25000000  0.62500000
  0.62500000  0.50000000  0.12500000
  0.62500000  0.50000000  0.37500000
  0.62500000  0.50000000  0.87500000
  0.87500000  0.25000000  0.87500000
  0.87500000  0.50000000  0.87500000
  0.87500000  0.75000000  0.87500000
  0.12500000  0.12500000  0.00000000
  0.12500000  0.12500000  0.25000000
  0.12500000  0.12500000  0.75000000
  0.12500000  0.37500000  0.25000000
  0.12500000  0.62500000  0.00000000
  0.12500000  0.62500000  0.50000000
  0.12500000  0.87500000  0.25000000
  0.12500000  0.87500000  0.75000000
  0.37500000  0.12500000  0.25000000
  0.37500000  0.12500000  0.75000000
  0.37500000  0.37500000  0.25000000
  0.37500000  0.37500000  0.75000000
  0.37500000  0.62500000  0.75000000
  0.37500000  0.87500000  0.00000000
  0.37500000  0.87500000  0.25000000
  0.37500000  0.87500000  0.75000000
  0.62500000  0.12500000  0.00000000
  0.62500000  0.12500000  0.25000000
  0.62500000  0.12500000  0.50000000
  0.62500000  0.37500000  0.50000000
  0.62500000  0.62500000  0.50000000
  0.87500000  0.12500000  0.25000000
  0.87500000  0.12500000  0.75000000
  0.87500000  0.37500000  0.00000000
  0.87500000  0.37500000  0.75000000
  0.87500000  0.62500000  0.25000000
  0.87500000  0.87500000  0.75000000
  0.00000000  0.25000000  0.00000000
  0.00000000  0.25000000  0.25000000
  0.00000000  0.25000000  0.50000000
  0.00000000  0.25000000  0.75000000
  0.00000000  0.50000000  0.25000000
  0.00000000  0.50000000  0.50000000
  0.00000000  0.75000000  0.00000000
  0.00000000  0.75000000  0.75000000
  0.25000000  0.00000000  0.50000000
  0.25000000  0.25000000  0.00000000
  0.25000000  0.25000000  0.50000000
  0.25000000  0.50000000  0.25000000
  0.25000000  0.50000000  0.75000000
  0.25000000  0.75000000  0.00000000
  0.25000000  0.75000000  0.25000000
  0.25000000  0.75000000  0.50000000
  0.50000000  0.50000000  0.00000000
  0.50000000  0.50000000  0.25000000
  0.50000000  0.75000000  0.00000000
  0.50000000  0.75000000  0.25000000
  0.50000000  0.75000000  0.50000000
  0.50000000  0.75000000  0.75000000
  0.75000000  0.25000000  0.00000000
  0.75000000  0.25000000  0.50000000
  0.75000000  0.75000000  0.00000000
  0.75000000  0.75000000  0.50000000
  0.75000000  0.75000000  0.75000000
  0.00000000  0.12500000  0.62500000
  0.00000000  0.37500000  0.12500000
  0.00000000  0.37500000  0.37500000
  0.00000000  0.37500000  0.62500000
  0.00000000  0.37500000  0.87500000
  0.00000000  0.62500000  0.12500000
  0.00000000  0.62500000  0.87500000
  0.00000000  0.87500000  0.12500000
  0.25000000  0.12500000  0.87500000
  0.25000000  0.37500000  0.87500000
  0.50000000  0.12500000  0.62500000
  0.50000000  0.12500000  0.87500000
  0.50000000  0.37500000  0.37500000
  0.50000000  0.37500000  0.62500000
  0.50000000  0.62500000  0.87500000
  0.50000000  0.87500000  0.12500000
  0.50000000  0.87500000  0.87500000
  0.75000000  0.37500000  0.62500000
  0.75000000  0.62500000  0.12500000
  0.75000000  0.62500000  0.62500000
  0.12808248  0.12808248  0.51232993
  0.12500000  0.00000000  0.62500000
  0.12500000  0.25000000  0.87500000
  0.12500000  0.50000000  0.37500000
  0.12500000  0.50000000  0.87500000
  0.12500000  0.75000000  0.37500000
  0.12500000  0.75000000  0.62500000
  0.37500000  0.00000000  0.12500000
  0.37500000  0.25000000  0.12500000
  0.37500000  0.25000000  0.37500000
  0.37500000  0.25000000  0.87500000
  0.37500000  0.50000000  0.62500000
  0.37500000  0.50000000  0.87500000
  0.37500000  0.75000000  0.37500000
  0.62500000  0.00000000  0.87500000
  0.62500000  0.25000000  0.37500000
  0.62500000  0.75000000  0.12500000
  0.62500000  0.75000000  0.37500000
  0.62500000  0.75000000  0.87500000
  0.87500000  0.00000000  0.37500000
  0.87500000  0.25000000  0.37500000
  0.87500000  0.25000000  0.62500000
  0.87500000  0.50000000  0.37500000
  0.87500000  0.75000000  0.12500000
  0.87500000  0.75000000  0.62500000
  0.12500000  0.62500000  0.25000000
  0.37500000  0.12500000  0.50000000
  0.37500000  0.37500000  0.00000000
  0.37500000  0.62500000  0.50000000
  0.62500000  0.37500000  0.75000000
  0.62500000  0.62500000  0.00000000
  0.62500000  0.62500000  0.25000000
  0.62500000  0.87500000  0.25000000
  0.62500000  0.87500000  0.75000000
  0.87500000  0.37500000  0.25000000
  0.87500000  0.62500000  0.75000000
  0.87500000  0.87500000  0.25000000
  0.87500000  0.87500000  0.50000000
Co Ni Cr
           1
    14.112000    0.000000    0.000000
     0.000000   14.112000    0.000000
     0.000000    0.000000   14.112000
 Co               Ni               Cr              
               85               85               85
Direct configuration=     1
  0.00000000  0.00000000  0.00000000
  0.00000000  0.00000000  0.75000000
  0.25000000  0.00000000  0.00000000
  0.25000000  0.00000000  0.25000000
  0.25000000  0.00000000  0.75000000
  0.25000000  0.25000000  0.25000000
  0.25000000  0.25000000  0.75000000
  0.25000000  0.50000000  0.50000000
  0.25000000  0.75000000  0.75000000
  0.50000000  0.00000000  0.00000000
  0.50000000  0.00000000  0.50000000
  0.50000000  0.00000000  0.75000000
  0.50000000  0.25000000  0.00000000
  0.50000000  0.25000000  0.25000000
  0.50000000  0.25000000  0.50000000
  0.50000000  0.25000000  0.75000000